REMARK  4 active torsions:
REMARK  status: ('A' for Active; 'I' for Inactive)
REMARK    1  A    between atoms: S_1  and  O_7 
REMARK    2  A    between atoms: S_1  and  N_10 
REMARK    3  A    between atoms: O_7  and  C_18 
REMARK    4  A    between atoms: C_13  and  C_18 
ROOT
HETATM    1  O   UNK N   1      -1.017  -2.490  -0.350  0.00  0.00    -0.342 OA
HETATM    2  O   UNK N   1       0.101  -0.629   1.501  0.00  0.00    -0.348 OA
HETATM    3  O   UNK N   1       1.212  -1.977   0.045  0.00  0.00    -0.315 OA
HETATM    4  O   UNK N   1      -1.958   0.966  -1.031  0.00  0.00    -0.345 OA
HETATM    5  O   UNK N   1      -3.045   1.126   1.023  0.00  0.00    -0.346 OA
HETATM    6  C   UNK N   1      -0.774  -1.166  -0.714  0.00  0.00     0.221 C 
HETATM    7  C   UNK N   1      -2.011  -0.293  -0.444  0.00  0.00     0.191 C 
HETATM    8  C   UNK N   1       0.445  -0.811   0.126  0.00  0.00     0.219 C 
HETATM    9  C   UNK N   1      -2.199   0.011   1.012  0.00  0.00     0.180 C 
HETATM   10  C   UNK N   1      -0.866   0.387   1.680  0.00  0.00     0.206 C 
HETATM   11  C   UNK N   1       0.277  -3.025  -0.137  0.00  0.00     0.161 C 
HETATM   12  C   UNK N   1      -2.896   1.711  -0.267  0.00  0.00     0.158 C 
HETATM   13  C   UNK N   1       0.262  -3.894   1.123  0.00  0.00     0.078 C 
HETATM   14  C   UNK N   1       0.690  -3.860  -1.356  0.00  0.00     0.078 C 
HETATM   15  C   UNK N   1      -4.268   1.720  -0.964  0.00  0.00     0.078 C 
HETATM   16  C   UNK N   1      -2.380   3.149  -0.139  0.00  0.00     0.078 C 
ENDROOT
BRANCH   8  17
HETATM   17  C   UNK N   1       1.296   0.356  -0.412  0.00  0.00     0.263 C 
BRANCH  17  18
HETATM   18  O   UNK N   1       2.388   0.513   0.461  0.00  0.00    -0.258 OA
BRANCH  18  19
HETATM   19  S   UNK N   1       3.410   1.771  -0.128  0.00  0.00     0.335 S 
HETATM   20  O   UNK N   1       2.679   3.121  -0.162  0.00  0.00    -0.181 OA
HETATM   21  O   UNK N   1       4.544   1.985   0.887  0.00  0.00    -0.181 OA
BRANCH  19  22
HETATM   22  N   UNK N   1       4.164   1.454  -1.691  0.00  0.00    -0.206 NA
HETATM   23  H   UNK N   1       4.559   0.487  -1.661  0.00  0.00     0.138 HD
HETATM   24  H   UNK N   1       3.418   1.482  -2.421  0.00  0.00     0.138 HD
ENDBRANCH  19  22
ENDBRANCH  18  19
ENDBRANCH  17  18
ENDBRANCH   8  17
TORSDOF 4
