MODEL 1
REMARK VINA RESULT:      -6.2      0.000      0.000
REMARK  4 active torsions:
REMARK  status: ('A' for Active; 'I' for Inactive)
REMARK    1  A    between atoms: S_1  and  O_7 
REMARK    2  A    between atoms: S_1  and  N_10 
REMARK    3  A    between atoms: O_7  and  C_18 
REMARK    4  A    between atoms: C_13  and  C_18 
ROOT
HETATM    1  O   UNK N   1      29.923  33.008  47.146  0.00  0.00    -0.342 OA
HETATM    2  O   UNK N   1      28.639  30.479  46.843  0.00  0.00    -0.348 OA
HETATM    3  O   UNK N   1      30.334  31.335  45.591  0.00  0.00    -0.315 OA
HETATM    4  O   UNK N   1      30.375  30.806  50.017  0.00  0.00    -0.345 OA
HETATM    5  O   UNK N   1      28.081  30.782  50.421  0.00  0.00    -0.346 OA
HETATM    6  C   UNK N   1      30.400  31.873  47.801  0.00  0.00     0.221 C 
HETATM    7  C   UNK N   1      29.757  31.739  49.192  0.00  0.00     0.191 C 
HETATM    8  C   UNK N   1      30.041  30.757  46.830  0.00  0.00     0.219 C 
HETATM    9  C   UNK N   1      28.338  31.261  49.131  0.00  0.00     0.180 C 
HETATM   10  C   UNK N   1      28.180  30.107  48.128  0.00  0.00     0.206 C 
HETATM   11  C   UNK N   1      30.145  32.726  45.776  0.00  0.00     0.161 C 
HETATM   12  C   UNK N   1      29.366  30.511  50.973  0.00  0.00     0.158 C 
HETATM   13  C   UNK N   1      28.923  33.167  44.967  0.00  0.00     0.078 C 
HETATM   14  C   UNK N   1      31.398  33.471  45.299  0.00  0.00     0.078 C 
HETATM   15  C   UNK N   1      29.552  31.375  52.232  0.00  0.00     0.078 C 
HETATM   16  C   UNK N   1      29.478  29.029  51.350  0.00  0.00     0.078 C 
ENDROOT
BRANCH   8  17
HETATM   17  C   UNK N   1      30.882  29.472  46.966  0.00  0.00     0.263 C 
BRANCH  17  18
HETATM   18  O   UNK N   1      31.612  29.324  45.773  0.00  0.00    -0.258 OA
BRANCH  18  19
HETATM   19  S   UNK N   1      31.039  27.935  44.926  0.00  0.00     0.335 S 
HETATM   20  O   UNK N   1      29.667  27.484  45.447  0.00  0.00    -0.181 OA
HETATM   21  O   UNK N   1      30.772  28.337  43.467  0.00  0.00    -0.181 OA
BRANCH  19  22
HETATM   22  N   UNK N   1      32.151  26.566  44.892  0.00  0.00    -0.206 NA
HETATM   23  H   UNK N   1      32.018  26.073  43.981  0.00  0.00     0.138 HD
HETATM   24  H   UNK N   1      33.125  26.940  44.925  0.00  0.00     0.138 HD
ENDBRANCH  19  22
ENDBRANCH  18  19
ENDBRANCH  17  18
ENDBRANCH   8  17
TORSDOF 4
ENDMDL
MODEL 2
REMARK VINA RESULT:      -6.1      1.722      2.304
REMARK  4 active torsions:
REMARK  status: ('A' for Active; 'I' for Inactive)
REMARK    1  A    between atoms: S_1  and  O_7 
REMARK    2  A    between atoms: S_1  and  N_10 
REMARK    3  A    between atoms: O_7  and  C_18 
REMARK    4  A    between atoms: C_13  and  C_18 
ROOT
HETATM    1  O   UNK N   1      28.692  32.825  47.479  0.00  0.00    -0.342 OA
HETATM    2  O   UNK N   1      27.971  30.496  48.962  0.00  0.00    -0.348 OA
HETATM    3  O   UNK N   1      28.015  30.746  46.702  0.00  0.00    -0.315 OA
HETATM    4  O   UNK N   1      31.432  31.474  49.469  0.00  0.00    -0.345 OA
HETATM    5  O   UNK N   1      30.253  31.856  51.441  0.00  0.00    -0.346 OA
HETATM    6  C   UNK N   1      29.643  31.867  47.828  0.00  0.00     0.221 C 
HETATM    7  C   UNK N   1      30.289  32.210  49.181  0.00  0.00     0.191 C 
HETATM    8  C   UNK N   1      28.832  30.579  47.824  0.00  0.00     0.219 C 
HETATM    9  C   UNK N   1      29.387  31.919  50.343  0.00  0.00     0.180 C 
HETATM   10  C   UNK N   1      28.687  30.560  50.179  0.00  0.00     0.206 C 
HETATM   11  C   UNK N   1      27.845  32.145  46.570  0.00  0.00     0.161 C 
HETATM   12  C   UNK N   1      31.535  31.588  50.881  0.00  0.00     0.158 C 
HETATM   13  C   UNK N   1      26.388  32.495  46.881  0.00  0.00     0.078 C 
HETATM   14  C   UNK N   1      28.199  32.561  45.136  0.00  0.00     0.078 C 
HETATM   15  C   UNK N   1      32.485  32.739  51.258  0.00  0.00     0.078 C 
HETATM   16  C   UNK N   1      32.089  30.269  51.433  0.00  0.00     0.078 C 
ENDROOT
BRANCH   8  17
HETATM   17  C   UNK N   1      29.650  29.287  47.629  0.00  0.00     0.263 C 
BRANCH  17  18
HETATM   18  O   UNK N   1      29.465  28.874  46.297  0.00  0.00    -0.258 OA
BRANCH  18  19
HETATM   19  S   UNK N   1      30.964  28.988  45.453  0.00  0.00     0.335 S 
HETATM   20  O   UNK N   1      30.834  29.847  44.187  0.00  0.00    -0.181 OA
HETATM   21  O   UNK N   1      31.955  29.766  46.333  0.00  0.00    -0.181 OA
BRANCH  19  22
HETATM   22  N   UNK N   1      31.722  27.444  45.058  0.00  0.00    -0.206 NA
HETATM   23  H   UNK N   1      30.973  26.715  45.063  0.00  0.00     0.138 HD
HETATM   24  H   UNK N   1      32.109  27.512  44.091  0.00  0.00     0.138 HD
ENDBRANCH  19  22
ENDBRANCH  18  19
ENDBRANCH  17  18
ENDBRANCH   8  17
TORSDOF 4
ENDMDL
MODEL 3
REMARK VINA RESULT:      -5.9      3.024      5.730
REMARK  4 active torsions:
REMARK  status: ('A' for Active; 'I' for Inactive)
REMARK    1  A    between atoms: S_1  and  O_7 
REMARK    2  A    between atoms: S_1  and  N_10 
REMARK    3  A    between atoms: O_7  and  C_18 
REMARK    4  A    between atoms: C_13  and  C_18 
ROOT
HETATM    1  O   UNK N   1      29.263  28.776  48.458  0.00  0.00    -0.342 OA
HETATM    2  O   UNK N   1      29.377  31.625  48.389  0.00  0.00    -0.348 OA
HETATM    3  O   UNK N   1      30.010  30.251  50.086  0.00  0.00    -0.315 OA
HETATM    4  O   UNK N   1      31.507  30.069  45.892  0.00  0.00    -0.345 OA
HETATM    5  O   UNK N   1      29.737  31.126  44.807  0.00  0.00    -0.346 OA
HETATM    6  C   UNK N   1      30.397  29.442  47.995  0.00  0.00     0.221 C 
HETATM    7  C   UNK N   1      30.310  29.669  46.476  0.00  0.00     0.191 C 
HETATM    8  C   UNK N   1      30.392  30.718  48.825  0.00  0.00     0.219 C 
HETATM    9  C   UNK N   1      29.360  30.769  46.107  0.00  0.00     0.180 C 
HETATM   10  C   UNK N   1      29.531  31.987  47.031  0.00  0.00     0.206 C 
HETATM   11  C   UNK N   1      29.214  29.107  49.834  0.00  0.00     0.161 C 
HETATM   12  C   UNK N   1      31.080  30.672  44.678  0.00  0.00     0.158 C 
HETATM   13  C   UNK N   1      27.768  29.420  50.226  0.00  0.00     0.078 C 
HETATM   14  C   UNK N   1      29.749  27.931  50.661  0.00  0.00     0.078 C 
HETATM   15  C   UNK N   1      31.146  29.656  43.523  0.00  0.00     0.078 C 
HETATM   16  C   UNK N   1      32.010  31.851  44.372  0.00  0.00     0.078 C 
ENDROOT
BRANCH   8  17
HETATM   17  C   UNK N   1      31.760  31.413  48.969  0.00  0.00     0.263 C 
BRANCH  17  18
HETATM   18  O   UNK N   1      32.735  30.403  49.046  0.00  0.00    -0.258 OA
BRANCH  18  19
HETATM   19  S   UNK N   1      33.422  30.394  50.628  0.00  0.00     0.335 S 
HETATM   20  O   UNK N   1      34.495  29.305  50.770  0.00  0.00    -0.181 OA
HETATM   21  O   UNK N   1      34.194  31.708  50.825  0.00  0.00    -0.181 OA
BRANCH  19  22
HETATM   22  N   UNK N   1      32.259  30.272  51.949  0.00  0.00    -0.206 NA
HETATM   23  H   UNK N   1      32.800  30.175  52.838  0.00  0.00     0.138 HD
HETATM   24  H   UNK N   1      31.719  31.164  51.988  0.00  0.00     0.138 HD
ENDBRANCH  19  22
ENDBRANCH  18  19
ENDBRANCH  17  18
ENDBRANCH   8  17
TORSDOF 4
ENDMDL
MODEL 4
REMARK VINA RESULT:      -5.7      2.669      5.048
REMARK  4 active torsions:
REMARK  status: ('A' for Active; 'I' for Inactive)
REMARK    1  A    between atoms: S_1  and  O_7 
REMARK    2  A    between atoms: S_1  and  N_10 
REMARK    3  A    between atoms: O_7  and  C_18 
REMARK    4  A    between atoms: C_13  and  C_18 
ROOT
HETATM    1  O   UNK N   1      29.613  32.937  50.646  0.00  0.00    -0.342 OA
HETATM    2  O   UNK N   1      32.057  32.334  49.304  0.00  0.00    -0.348 OA
HETATM    3  O   UNK N   1      31.273  31.425  51.235  0.00  0.00    -0.315 OA
HETATM    4  O   UNK N   1      29.123  31.501  47.331  0.00  0.00    -0.345 OA
HETATM    5  O   UNK N   1      30.202  33.309  46.335  0.00  0.00    -0.346 OA
HETATM    6  C   UNK N   1      29.681  31.926  49.688  0.00  0.00     0.221 C 
HETATM    7  C   UNK N   1      29.353  32.479  48.291  0.00  0.00     0.191 C 
HETATM    8  C   UNK N   1      31.106  31.416  49.847  0.00  0.00     0.219 C 
HETATM    9  C   UNK N   1      30.478  33.280  47.707  0.00  0.00     0.180 C 
HETATM   10  C   UNK N   1      31.832  32.587  47.931  0.00  0.00     0.206 C 
HETATM   11  C   UNK N   1      30.421  32.454  51.704  0.00  0.00     0.161 C 
HETATM   12  C   UNK N   1      29.341  32.197  46.111  0.00  0.00     0.158 C 
HETATM   13  C   UNK N   1      31.284  33.598  52.242  0.00  0.00     0.078 C 
HETATM   14  C   UNK N   1      29.524  31.895  52.816  0.00  0.00     0.078 C 
HETATM   15  C   UNK N   1      28.008  32.713  45.543  0.00  0.00     0.078 C 
HETATM   16  C   UNK N   1      29.980  31.227  45.111  0.00  0.00     0.078 C 
ENDROOT
BRANCH   8  17
HETATM   17  C   UNK N   1      31.349  29.978  49.348  0.00  0.00     0.263 C 
BRANCH  17  18
HETATM   18  O   UNK N   1      30.849  29.105  50.333  0.00  0.00    -0.258 OA
BRANCH  18  19
HETATM   19  S   UNK N   1      29.518  28.220  49.686  0.00  0.00     0.335 S 
HETATM   20  O   UNK N   1      28.175  28.820  50.127  0.00  0.00    -0.181 OA
HETATM   21  O   UNK N   1      29.521  28.394  48.159  0.00  0.00    -0.181 OA
BRANCH  19  22
HETATM   22  N   UNK N   1      29.541  26.487  50.012  0.00  0.00    -0.206 NA
HETATM   23  H   UNK N   1      30.488  26.248  50.384  0.00  0.00     0.138 HD
HETATM   24  H   UNK N   1      28.835  26.289  50.756  0.00  0.00     0.138 HD
ENDBRANCH  19  22
ENDBRANCH  18  19
ENDBRANCH  17  18
ENDBRANCH   8  17
TORSDOF 4
ENDMDL
MODEL 5
REMARK VINA RESULT:      -5.6      3.141      4.343
REMARK  4 active torsions:
REMARK  status: ('A' for Active; 'I' for Inactive)
REMARK    1  A    between atoms: S_1  and  O_7 
REMARK    2  A    between atoms: S_1  and  N_10 
REMARK    3  A    between atoms: O_7  and  C_18 
REMARK    4  A    between atoms: C_13  and  C_18 
ROOT
HETATM    1  O   UNK N   1      32.267  30.688  46.059  0.00  0.00    -0.342 OA
HETATM    2  O   UNK N   1      31.160  32.818  47.600  0.00  0.00    -0.348 OA
HETATM    3  O   UNK N   1      30.081  31.467  46.123  0.00  0.00    -0.315 OA
HETATM    4  O   UNK N   1      32.437  30.108  49.654  0.00  0.00    -0.345 OA
HETATM    5  O   UNK N   1      33.809  31.969  49.939  0.00  0.00    -0.346 OA
HETATM    6  C   UNK N   1      31.730  30.460  47.325  0.00  0.00     0.221 C 
HETATM    7  C   UNK N   1      32.816  30.590  48.407  0.00  0.00     0.191 C 
HETATM    8  C   UNK N   1      30.627  31.506  47.409  0.00  0.00     0.219 C 
HETATM    9  C   UNK N   1      33.190  32.015  48.684  0.00  0.00     0.180 C 
HETATM   10  C   UNK N   1      31.943  32.911  48.774  0.00  0.00     0.206 C 
HETATM   11  C   UNK N   1      31.146  31.066  45.279  0.00  0.00     0.161 C 
HETATM   12  C   UNK N   1      33.340  30.763  50.534  0.00  0.00     0.158 C 
HETATM   13  C   UNK N   1      31.532  32.244  44.381  0.00  0.00     0.078 C 
HETATM   14  C   UNK N   1      30.691  29.873  44.429  0.00  0.00     0.078 C 
HETATM   15  C   UNK N   1      34.550  29.858  50.831  0.00  0.00     0.078 C 
HETATM   16  C   UNK N   1      32.601  31.071  51.842  0.00  0.00     0.078 C 
ENDROOT
BRANCH   8  17
HETATM   17  C   UNK N   1      29.500  31.193  48.413  0.00  0.00     0.263 C 
BRANCH  17  18
HETATM   18  O   UNK N   1      29.360  29.794  48.460  0.00  0.00    -0.258 OA
BRANCH  18  19
HETATM   19  S   UNK N   1      28.941  29.318  50.063  0.00  0.00     0.335 S 
HETATM   20  O   UNK N   1      29.730  28.077  50.507  0.00  0.00    -0.181 OA
HETATM   21  O   UNK N   1      29.404  30.420  51.029  0.00  0.00    -0.181 OA
BRANCH  19  22
HETATM   22  N   UNK N   1      27.218  29.069  50.345  0.00  0.00    -0.206 NA
HETATM   23  H   UNK N   1      26.831  28.566  49.515  0.00  0.00     0.138 HD
HETATM   24  H   UNK N   1      27.113  28.452  51.181  0.00  0.00     0.138 HD
ENDBRANCH  19  22
ENDBRANCH  18  19
ENDBRANCH  17  18
ENDBRANCH   8  17
TORSDOF 4
ENDMDL
MODEL 6
REMARK VINA RESULT:      -5.4      3.154      5.075
REMARK  4 active torsions:
REMARK  status: ('A' for Active; 'I' for Inactive)
REMARK    1  A    between atoms: S_1  and  O_7 
REMARK    2  A    between atoms: S_1  and  N_10 
REMARK    3  A    between atoms: O_7  and  C_18 
REMARK    4  A    between atoms: C_13  and  C_18 
ROOT
HETATM    1  O   UNK N   1      30.153  29.498  51.033  0.00  0.00    -0.342 OA
HETATM    2  O   UNK N   1      31.741  29.881  48.693  0.00  0.00    -0.348 OA
HETATM    3  O   UNK N   1      29.477  29.994  48.869  0.00  0.00    -0.315 OA
HETATM    4  O   UNK N   1      32.396  32.363  51.263  0.00  0.00    -0.345 OA
HETATM    5  O   UNK N   1      34.261  30.981  51.070  0.00  0.00    -0.346 OA
HETATM    6  C   UNK N   1      30.624  30.762  50.678  0.00  0.00     0.221 C 
HETATM    7  C   UNK N   1      31.988  31.036  51.332  0.00  0.00     0.191 C 
HETATM    8  C   UNK N   1      30.656  30.687  49.157  0.00  0.00     0.219 C 
HETATM    9  C   UNK N   1      33.109  30.295  50.667  0.00  0.00     0.180 C 
HETATM   10  C   UNK N   1      32.994  30.365  49.135  0.00  0.00     0.206 C 
HETATM   11  C   UNK N   1      29.241  29.174  49.999  0.00  0.00     0.161 C 
HETATM   12  C   UNK N   1      33.801  32.274  51.453  0.00  0.00     0.158 C 
HETATM   13  C   UNK N   1      29.436  27.711  49.594  0.00  0.00     0.078 C 
HETATM   14  C   UNK N   1      27.807  29.403  50.495  0.00  0.00     0.078 C 
HETATM   15  C   UNK N   1      34.157  32.503  52.933  0.00  0.00     0.078 C 
HETATM   16  C   UNK N   1      34.473  33.351  50.594  0.00  0.00     0.078 C 
ENDROOT
BRANCH   8  17
HETATM   17  C   UNK N   1      30.599  32.045  48.432  0.00  0.00     0.263 C 
BRANCH  17  18
HETATM   18  O   UNK N   1      29.245  32.419  48.352  0.00  0.00    -0.258 OA
BRANCH  18  19
HETATM   19  S   UNK N   1      28.766  32.466  46.696  0.00  0.00     0.335 S 
HETATM   20  O   UNK N   1      27.282  32.834  46.549  0.00  0.00    -0.181 OA
HETATM   21  O   UNK N   1      29.508  33.625  46.012  0.00  0.00    -0.181 OA
BRANCH  19  22
HETATM   22  N   UNK N   1      29.119  31.005  45.772  0.00  0.00    -0.206 NA
HETATM   23  H   UNK N   1      28.401  30.928  45.017  0.00  0.00     0.138 HD
HETATM   24  H   UNK N   1      30.055  31.125  45.324  0.00  0.00     0.138 HD
ENDBRANCH  19  22
ENDBRANCH  18  19
ENDBRANCH  17  18
ENDBRANCH   8  17
TORSDOF 4
ENDMDL
MODEL 7
REMARK VINA RESULT:      -5.4      2.815      4.543
REMARK  4 active torsions:
REMARK  status: ('A' for Active; 'I' for Inactive)
REMARK    1  A    between atoms: S_1  and  O_7 
REMARK    2  A    between atoms: S_1  and  N_10 
REMARK    3  A    between atoms: O_7  and  C_18 
REMARK    4  A    between atoms: C_13  and  C_18 
ROOT
HETATM    1  O   UNK N   1      31.867  29.436  45.173  0.00  0.00    -0.342 OA
HETATM    2  O   UNK N   1      29.473  30.968  45.424  0.00  0.00    -0.348 OA
HETATM    3  O   UNK N   1      29.673  28.703  45.363  0.00  0.00    -0.315 OA
HETATM    4  O   UNK N   1      31.738  31.424  48.227  0.00  0.00    -0.345 OA
HETATM    5  O   UNK N   1      31.669  33.400  46.995  0.00  0.00    -0.346 OA
HETATM    6  C   UNK N   1      31.365  29.793  46.424  0.00  0.00     0.221 C 
HETATM    7  C   UNK N   1      31.962  31.134  46.886  0.00  0.00     0.191 C 
HETATM    8  C   UNK N   1      29.863  29.821  46.182  0.00  0.00     0.219 C 
HETATM    9  C   UNK N   1      31.365  32.310  46.172  0.00  0.00     0.180 C 
HETATM   10  C   UNK N   1      29.837  32.177  46.060  0.00  0.00     0.206 C 
HETATM   11  C   UNK N   1      30.891  28.547  44.659  0.00  0.00     0.161 C 
HETATM   12  C   UNK N   1      31.914  32.833  48.278  0.00  0.00     0.158 C 
HETATM   13  C   UNK N   1      30.649  28.866  43.181  0.00  0.00     0.078 C 
HETATM   14  C   UNK N   1      31.383  27.103  44.820  0.00  0.00     0.078 C 
HETATM   15  C   UNK N   1      33.352  33.179  48.702  0.00  0.00     0.078 C 
HETATM   16  C   UNK N   1      30.929  33.404  49.305  0.00  0.00     0.078 C 
ENDROOT
BRANCH   8  17
HETATM   17  C   UNK N   1      28.991  29.642  47.440  0.00  0.00     0.263 C 
BRANCH  17  18
HETATM   18  O   UNK N   1      29.526  28.563  48.168  0.00  0.00    -0.258 OA
BRANCH  18  19
HETATM   19  S   UNK N   1      29.169  28.774  49.842  0.00  0.00     0.335 S 
HETATM   20  O   UNK N   1      29.700  27.604  50.683  0.00  0.00    -0.181 OA
HETATM   21  O   UNK N   1      29.957  29.990  50.353  0.00  0.00    -0.181 OA
BRANCH  19  22
HETATM   22  N   UNK N   1      27.469  29.062  50.215  0.00  0.00    -0.206 NA
HETATM   23  H   UNK N   1      27.315  28.796  51.214  0.00  0.00     0.138 HD
HETATM   24  H   UNK N   1      27.285  30.085  50.115  0.00  0.00     0.138 HD
ENDBRANCH  19  22
ENDBRANCH  18  19
ENDBRANCH  17  18
ENDBRANCH   8  17
TORSDOF 4
ENDMDL
MODEL 8
REMARK VINA RESULT:      -5.2      3.003      5.431
REMARK  4 active torsions:
REMARK  status: ('A' for Active; 'I' for Inactive)
REMARK    1  A    between atoms: S_1  and  O_7 
REMARK    2  A    between atoms: S_1  and  N_10 
REMARK    3  A    between atoms: O_7  and  C_18 
REMARK    4  A    between atoms: C_13  and  C_18 
ROOT
HETATM    1  O   UNK N   1      28.772  29.493  49.232  0.00  0.00    -0.342 OA
HETATM    2  O   UNK N   1      30.722  31.529  49.669  0.00  0.00    -0.348 OA
HETATM    3  O   UNK N   1      30.996  29.280  49.863  0.00  0.00    -0.315 OA
HETATM    4  O   UNK N   1      29.542  31.423  46.235  0.00  0.00    -0.345 OA
HETATM    5  O   UNK N   1      28.758  33.376  47.233  0.00  0.00    -0.346 OA
HETATM    6  C   UNK N   1      29.593  29.942  48.198  0.00  0.00     0.221 C 
HETATM    7  C   UNK N   1      28.929  31.104  47.442  0.00  0.00     0.191 C 
HETATM    8  C   UNK N   1      30.874  30.315  48.931  0.00  0.00     0.219 C 
HETATM    9  C   UNK N   1      28.976  32.394  48.205  0.00  0.00     0.180 C 
HETATM   10  C   UNK N   1      30.359  32.616  48.840  0.00  0.00     0.206 C 
HETATM   11  C   UNK N   1      29.669  28.858  50.125  0.00  0.00     0.161 C 
HETATM   12  C   UNK N   1      29.104  32.754  46.000  0.00  0.00     0.158 C 
HETATM   13  C   UNK N   1      29.306  29.240  51.561  0.00  0.00     0.078 C 
HETATM   14  C   UNK N   1      29.581  27.337  49.939  0.00  0.00     0.078 C 
HETATM   15  C   UNK N   1      27.867  32.756  45.084  0.00  0.00     0.078 C 
HETATM   16  C   UNK N   1      30.242  33.523  45.320  0.00  0.00     0.078 C 
ENDROOT
BRANCH   8  17
HETATM   17  C   UNK N   1      32.148  30.325  48.064  0.00  0.00     0.263 C 
BRANCH  17  18
HETATM   18  O   UNK N   1      33.245  30.179  48.933  0.00  0.00    -0.258 OA
BRANCH  18  19
HETATM   19  S   UNK N   1      34.111  31.669  49.011  0.00  0.00     0.335 S 
HETATM   20  O   UNK N   1      35.628  31.437  49.042  0.00  0.00    -0.181 OA
HETATM   21  O   UNK N   1      33.876  32.431  47.698  0.00  0.00    -0.181 OA
BRANCH  19  22
HETATM   22  N   UNK N   1      33.637  32.742  50.328  0.00  0.00    -0.206 NA
HETATM   23  H   UNK N   1      32.797  32.325  50.789  0.00  0.00     0.138 HD
HETATM   24  H   UNK N   1      34.417  32.764  51.023  0.00  0.00     0.138 HD
ENDBRANCH  19  22
ENDBRANCH  18  19
ENDBRANCH  17  18
ENDBRANCH   8  17
TORSDOF 4
ENDMDL
MODEL 9
REMARK VINA RESULT:      -5.2      3.186      5.021
REMARK  4 active torsions:
REMARK  status: ('A' for Active; 'I' for Inactive)
REMARK    1  A    between atoms: S_1  and  O_7 
REMARK    2  A    between atoms: S_1  and  N_10 
REMARK    3  A    between atoms: O_7  and  C_18 
REMARK    4  A    between atoms: C_13  and  C_18 
ROOT
HETATM    1  O   UNK N   1      30.689  31.258  51.985  0.00  0.00    -0.342 OA
HETATM    2  O   UNK N   1      31.525  29.851  49.648  0.00  0.00    -0.348 OA
HETATM    3  O   UNK N   1      29.619  31.057  49.935  0.00  0.00    -0.315 OA
HETATM    4  O   UNK N   1      33.770  32.565  50.538  0.00  0.00    -0.345 OA
HETATM    5  O   UNK N   1      34.861  30.542  50.913  0.00  0.00    -0.346 OA
HETATM    6  C   UNK N   1      31.452  31.883  51.000  0.00  0.00     0.221 C 
HETATM    7  C   UNK N   1      32.953  31.742  51.305  0.00  0.00     0.191 C 
HETATM    8  C   UNK N   1      30.997  31.176  49.731  0.00  0.00     0.219 C 
HETATM    9  C   UNK N   1      33.476  30.367  51.015  0.00  0.00     0.180 C 
HETATM   10  C   UNK N   1      32.939  29.837  49.675  0.00  0.00     0.206 C 
HETATM   11  C   UNK N   1      29.455  30.995  51.340  0.00  0.00     0.161 C 
HETATM   12  C   UNK N   1      35.035  31.926  50.627  0.00  0.00     0.158 C 
HETATM   13  C   UNK N   1      28.980  29.590  51.717  0.00  0.00     0.078 C 
HETATM   14  C   UNK N   1      28.421  32.042  51.772  0.00  0.00     0.078 C 
HETATM   15  C   UNK N   1      35.878  32.558  51.749  0.00  0.00     0.078 C 
HETATM   16  C   UNK N   1      35.759  32.102  49.286  0.00  0.00     0.078 C 
ENDROOT
BRANCH   8  17
HETATM   17  C   UNK N   1      31.217  31.964  48.425  0.00  0.00     0.263 C 
BRANCH  17  18
HETATM   18  O   UNK N   1      30.183  31.605  47.541  0.00  0.00    -0.258 OA
BRANCH  18  19
HETATM   19  S   UNK N   1      30.796  30.495  46.372  0.00  0.00     0.335 S 
HETATM   20  O   UNK N   1      30.108  30.675  45.010  0.00  0.00    -0.181 OA
HETATM   21  O   UNK N   1      32.266  30.847  46.098  0.00  0.00    -0.181 OA
BRANCH  19  22
HETATM   22  N   UNK N   1      30.747  28.798  46.851  0.00  0.00    -0.206 NA
HETATM   23  H   UNK N   1      30.079  28.715  47.650  0.00  0.00     0.138 HD
HETATM   24  H   UNK N   1      30.372  28.246  46.049  0.00  0.00     0.138 HD
ENDBRANCH  19  22
ENDBRANCH  18  19
ENDBRANCH  17  18
ENDBRANCH   8  17
TORSDOF 4
ENDMDL
